version 2
run General-0-20110702-12:52:04-7880
attr configname General
attr datetime 20110702-12:52:04
attr experiment General
attr inifile /Users/ymir/Devel/omnet-workspace/inet/examples/mpls/testte_failure/omnetpp.ini
attr iterationvars ""
attr iterationvars2 $repetition=0
attr measurement ""
attr network RSVPTE4
attr processid 7880
attr repetition 0
attr replication #0
attr resultdir results
attr runnumber 0
attr seedset 0

vector 22  RSVPTE4.LSR4.ppp[0].queue  "queue length"  ETV
vector 24  RSVPTE4.LSR4.ppp[1].queue  "queue length"  ETV
vector 26  RSVPTE4.LSR4.ppp[2].queue  "queue length"  ETV
vector 14  RSVPTE4.LSR2.ppp[2].queue  "queue length"  ETV
vector 12  RSVPTE4.LSR2.ppp[1].queue  "queue length"  ETV
vector 10  RSVPTE4.LSR2.ppp[0].queue  "queue length"  ETV
vector 28  RSVPTE4.LSR5.ppp[0].queue  "queue length"  ETV
vector 16  RSVPTE4.LSR3.ppp[0].queue  "queue length"  ETV
vector 18  RSVPTE4.LSR3.ppp[1].queue  "queue length"  ETV
vector 20  RSVPTE4.LSR3.ppp[2].queue  "queue length"  ETV
vector 34  RSVPTE4.LSR5.ppp[3].queue  "queue length"  ETV
vector 36  RSVPTE4.LSR5.ppp[4].queue  "queue length"  ETV
vector 2  RSVPTE4.LSR1.ppp[1].queue  "queue length"  ETV
vector 42  RSVPTE4.LSR7.ppp[0].queue  "queue length"  ETV
vector 44  RSVPTE4.LSR7.ppp[1].queue  "queue length"  ETV
vector 0  RSVPTE4.LSR1.ppp[0].queue  "queue length"  ETV
vector 40  RSVPTE4.LSR6.ppp[1].queue  "queue length"  ETV
22	87	0.00882384669	1
22	93	0.009778825672	0
22	190	0.014734463482	1
22	261	0.015898825672	0
22	789	0.031058825672	1
22	862	0.033310404426	0
22	931	0.037434876634	1
22	990	0.038470404426	0
22	1734	0.069044561501	1
22	1764	0.070364561501	0
22	3390	0.179868155995	1
22	3394	0.179868155995	0
22	4447	0.333112556857	1
22	4449	0.333112556857	0
22	8762	1.035319999999	1
22	8778	1.036639999999	0
24	88	0.00882384669	1
24	95	0.009778825672	0
24	403	0.020110404426	1
24	418	0.020778451012	2
24	431	0.021430404426	1
24	433	0.021803737759	0
24	790	0.031058825672	1
24	837	0.032286125083	0
24	932	0.037434876634	1
24	933	0.037446125083	0
24	1011	0.039070404426	1
24	1012	0.039070404426	2
24	1017	0.039726125083	1
24	1208	0.043791784345	2
24	1542	0.059819458416	1
24	1597	0.062526125082	0
24	1729	0.069044561501	1
24	1739	0.069325492338	0
24	2838	0.118306666666	1
24	2840	0.118693333332	0
24	3357	0.178548155995	1
24	3363	0.178693333332	0
24	3391	0.179868155995	1
24	3403	0.180013333332	0
24	4448	0.333112556857	1
24	4451	0.333112556857	0
24	8777	1.036519999999	1
24	8780	1.036639999999	0
24	8933	1.048413333332	1
24	8936	1.048693333332	0
26	89	0.00882384669	1
26	97	0.009778825672	0
26	399	0.020110404426	1
26	419	0.020778451012	2
26	509	0.023734463482	1
26	526	0.025054463482	0
26	716	0.030006125083	1
26	864	0.033310404426	0
26	1209	0.043791784345	1
26	1213	0.043990404426	0
26	2030	0.082057894834	1
26	2065	0.082907796814	0
26	4599	0.339815573397	1
26	4613	0.341135573397	0
