version 2
run General-0-20110701-00:15:43-7602
attr configname General
attr datetime 20110701-00:15:43
attr experiment General
attr inifile /Users/ymir/Devel/omnet-workspace/inet/examples/mpls/testte_routing/omnetpp.ini
attr iterationvars ""
attr iterationvars2 $repetition=0
attr measurement ""
attr network RSVPTE4
attr processid 7602
attr repetition 0
attr replication #0
attr resultdir results
attr runnumber 0
attr seedset 0

vector 22  RSVPTE4.LSR4.ppp[0].queue  "queue length"  ETV
vector 24  RSVPTE4.LSR4.ppp[1].queue  "queue length"  ETV
vector 26  RSVPTE4.LSR4.ppp[2].queue  "queue length"  ETV
vector 14  RSVPTE4.LSR2.ppp[2].queue  "queue length"  ETV
vector 12  RSVPTE4.LSR2.ppp[1].queue  "queue length"  ETV
vector 10  RSVPTE4.LSR2.ppp[0].queue  "queue length"  ETV
vector 28  RSVPTE4.LSR5.ppp[0].queue  "queue length"  ETV
vector 16  RSVPTE4.LSR3.ppp[0].queue  "queue length"  ETV
vector 18  RSVPTE4.LSR3.ppp[1].queue  "queue length"  ETV
vector 20  RSVPTE4.LSR3.ppp[2].queue  "queue length"  ETV
vector 34  RSVPTE4.LSR5.ppp[3].queue  "queue length"  ETV
vector 36  RSVPTE4.LSR5.ppp[4].queue  "queue length"  ETV
vector 2  RSVPTE4.LSR1.ppp[1].queue  "queue length"  ETV
vector 42  RSVPTE4.LSR7.ppp[0].queue  "queue length"  ETV
vector 44  RSVPTE4.LSR7.ppp[1].queue  "queue length"  ETV
vector 0  RSVPTE4.LSR1.ppp[0].queue  "queue length"  ETV
vector 40  RSVPTE4.LSR6.ppp[1].queue  "queue length"  ETV
vector 38  RSVPTE4.LSR6.ppp[0].queue  "queue length"  ETV
vector 30  RSVPTE4.LSR5.ppp[1].queue  "queue length"  ETV
0	506	0.023018825672	1
0	700	0.02974384669	0
0	1474	0.056630404426	1
0	1475	0.056630404426	0
0	3383	0.179868155995	1
0	3396	0.179868155995	0
0	4840	0.353775573397	1
0	4841	0.353775573397	0
0	8501	1	1
0	8518	1.001693333333	0
0	9009	1.038879999999	1
0	9010	1.038879999999	0
0	9025	1.039333333332	1
0	9044	1.040199999999	0
0	10046	1.082173333333	1
0	10058	1.082679999998	0
0	18452	3	1
0	18469	3.000946666666	0
0	19351	3.061199999998	1
0	19364	3.061199999998	0
0	19384	3.061653333331	1
0	19391	3.062519999998	0
2	360	0.01882384669	1
2	484	0.022774463482	0
2	2326	0.093004561501	1
2	2352	0.094346666666	0
2	2525	0.10232516116	1
2	2537	0.102698494493	2
2	2584	0.104346666666	1
2	2598	0.105666666666	0
2	4307	0.319152556857	1
2	4323	0.320472556857	0
2	9569	1.059733333332	1
2	9578	1.060599999999	0
2	10024	1.080906666665	1
2	10025	1.080906666665	0
2	10041	1.081359999998	1
2	10052	1.082226666665	0
2	18461	3	1
2	18471	3.00132	0
2	18479	3.002173333333	1
2	18482	3.003013333333	0
2	18994	3.032266666666	1
2	19002	3.034346666666	0
2	19389	3.062173333333	1
2	19395	3.062973333331	0
10	218	0.014778825672	1
10	259	0.015778451012	0
10	525	0.024138825672	1
10	527	0.025006125083	0
10	559	0.025915191968	1
10	590	0.026430404426	2
10	683	0.028246125083	1
10	949	0.037471784345	2
10	966	0.038310404426	3
10	1214	0.043966125083	2
10	1253	0.045286125083	1
10	1267	0.045750404426	2
10	1275	0.046606125083	1
10	1324	0.048990404426	2
10	1401	0.051766125083	1
10	1436	0.054046125083	0
10	1936	0.075737894834	1
10	1957	0.076684561501	0
10	2107	0.08600516116	1
10	2156	0.08732516116	0
10	3483	0.186188155995	1
10	3485	0.186188155995	0
10	9121	1.042093333332	1
10	9124	1.042093333332	2
10	9167	1.042959999999	1
10	9194	1.044279999999	0
10	9207	1.044333333332	1
10	9211	1.044733333332	0
10	9658	1.063719999998	1
10	9661	1.063719999998	2
10	9676	1.064586666665	1
10	9699	1.065906666665	0
10	19474	3.067519999998	1
10	19490	3.067519999998	0
12	217	0.014778825672	1
12	261	0.015778451012	0
12	9632	1.063671228168	1
12	9659	1.063719999998	2
12	9678	1.064586666665	1
12	9682	1.064959999998	0
12	18621	3.015946666666	1
12	18635	3.016893333332	0
12	18647	3.017266666666	1
12	18667	3.018213333332	0
14	165	0.014458451012	1
14	219	0.014778825672	2
14	263	0.015778451012	1
14	283	0.016151784345	0
14	526	0.024138825672	1
14	561	0.025915191968	2
14	591	0.026430404426	3
14	768	0.030766125083	2
14	880	0.034006125083	1
14	967	0.038310404426	2
14	1017	0.039166125083	1
14	1042	0.040486125083	0
14	1938	0.075737894834	1
14	1959	0.076684561501	0
14	3484	0.186188155995	1
14	3487	0.186188155995	0
14	9123	1.042093333332	1
14	9169	1.042959999999	0
14	18648	3.017266666666	1
14	18650	3.017266666666	0
14	19475	3.067519999998	1
14	19492	3.067519999998	0
16	280	0.015915191968	1
16	321	0.018018825672	2
16	327	0.018018825672	1
16	690	0.028938825672	0
16	732	0.030054463482	1
16	749	0.030154876634	2
16	821	0.031374463482	3
16	839	0.032178825672	2
16	874	0.033498825672	1
16	896	0.035778825672	0
16	1054	0.040590404426	1
16	1200	0.043470404426	0
16	1371	0.050310404426	1
16	1374	0.050310404426	0
16	2239	0.089227796814	1
16	2243	0.089227796814	0
16	3307	0.172601489328	1
16	3311	0.173548155995	0
16	4702	0.34650890673	1
16	4726	0.347455573397	0
16	8897	1.031693333332	1
16	8900	1.031693333332	2
16	8918	1.032559999999	1
16	8930	1.033879999999	0
16	18922	3.029533333332	1
16	18926	3.029533333332	0
16	19272	3.054013333331	1
16	19275	3.054013333331	2
16	19278	3.054879999998	1
16	19291	3.056199999998	0
18	281	0.015915191968	1
18	428	0.020898825672	0
18	1538	0.059346666666	1
18	1549	0.059978825672	0
18	3308	0.172601489328	1
18	3313	0.173548155995	0
18	4371	0.32584589019	1
18	4387	0.326792556857	0
18	19273	3.054013333331	1
18	19280	3.054879999998	0
20	282	0.015915191968	1
20	322	0.018018825672	2
20	329	0.018018825672	1
20	510	0.023178825672	0
20	748	0.030154876634	1
20	822	0.031374463482	2
20	823	0.031374463482	1
20	979	0.038310404426	2
20	1055	0.040590404426	3
20	1277	0.047094463482	2
20	1301	0.048414463482	1
20	1338	0.048990404426	2
20	1372	0.050310404426	3
20	1432	0.053574463482	2
20	1465	0.055854463482	1
20	1481	0.057174463482	0
20	2240	0.089227796814	1
20	2245	0.089227796814	0
20	4372	0.32584589019	1
20	4389	0.326792556857	0
20	4704	0.34650890673	1
20	4728	0.347455573397	0
20	8899	1.031693333332	1
20	8920	1.032559999999	0
20	18923	3.029533333332	1
20	18928	3.029533333332	0
20	20027	3.150534822662	1
20	20032	3.151626666665	0
20	20885	3.350534822662	1
20	20890	3.351626666665	0
20	21743	3.550534822662	1
20	21748	3.551626666665	0
20	22601	3.750534822662	1
20	22606	3.751626666665	0
20	23459	3.950534822662	1
20	23464	3.951626666665	0
20	24317	4.150534822662	1
20	24322	4.151626666665	0
20	25175	4.350534822662	1
20	25180	4.351626666665	0
20	26033	4.550534822662	1
20	26038	4.551626666665	0
20	26891	4.750534822662	1
20	26896	4.751626666665	0
20	27749	4.950534822662	1
20	27754	4.951626666665	0
22	91	0.00882384669	1
22	97	0.009778825672	0
22	194	0.014734463482	1
22	265	0.015898825672	0
22	793	0.031058825672	1
22	866	0.033310404426	0
22	935	0.037434876634	1
22	994	0.038470404426	0
22	1738	0.069044561501	1
22	1768	0.070364561501	0
22	3394	0.179868155995	1
22	3398	0.179868155995	0
22	4451	0.333112556857	1
22	4453	0.333112556857	0
22	8956	1.035319999999	1
22	8972	1.036639999999	0
22	19362	3.061199999998	1
22	19366	3.061199999998	0
24	92	0.00882384669	1
24	99	0.009778825672	0
24	407	0.020110404426	1
24	422	0.020778451012	2
24	435	0.021430404426	1
24	437	0.021803737759	0
24	794	0.031058825672	1
24	841	0.032286125083	0
24	936	0.037434876634	1
24	937	0.037446125083	0
24	1015	0.039070404426	1
24	1016	0.039070404426	2
24	1021	0.039726125083	1
24	1212	0.043791784345	2
24	1546	0.059819458416	1
24	1601	0.062526125082	0
24	1733	0.069044561501	1
24	1743	0.069325492338	0
24	2842	0.118306666666	1
24	2844	0.118693333332	0
24	3361	0.178548155995	1
24	3367	0.178693333332	0
24	3395	0.179868155995	1
24	3407	0.180013333332	0
24	4452	0.333112556857	1
24	4455	0.333112556857	0
24	8971	1.036519999999	1
24	8974	1.036639999999	0
24	8998	1.038013333332	1
24	9000	1.038813333332	0
24	9284	1.048413333332	1
24	9287	1.048693333332	0
24	18657	3.017359999999	1
24	18677	3.018853333331	0
24	18727	3.020110404426	1
24	18734	3.021026666664	0
24	18759	3.021893333332	1
24	18771	3.022839999998	0
24	18783	3.023213333332	1
24	18792	3.024159999998	0
24	19363	3.061199999998	1
24	19368	3.061199999998	0
26	93	0.00882384669	1
26	101	0.009778825672	0
26	403	0.020110404426	1
26	423	0.020778451012	2
26	513	0.023734463482	1
26	530	0.025054463482	0
26	720	0.030006125083	1
26	868	0.033310404426	0
26	1213	0.043791784345	1
26	1217	0.043990404426	0
26	2034	0.082057894834	1
26	2069	0.082907796814	0
26	4603	0.339815573397	1
26	4617	0.341135573397	0
26	8765	1.024919999999	1
26	8766	1.024919999999	2
26	8782	1.026239999999	1
26	8791	1.026693333332	0
26	18784	3.023213333332	1
26	18786	3.023213333332	0
28	233	0.014778825672	1
28	257	0.015110404426	0
28	341	0.018083692642	1
28	482	0.022726125083	2
28	508	0.023150404426	1
28	617	0.026803737759	2
28	766	0.030154876634	3
28	886	0.034070404426	2
28	902	0.036350404426	1
28	952	0.037670404426	0
28	992	0.038418451012	1
28	1024	0.039950404426	0
30	18815	3.026026666664	1
30	18816	3.026026666664	0
34	309	0.018018825672	1
34	323	0.018018825672	0
34	342	0.018083692642	1
34	430	0.021258825672	0
34	481	0.022726125083	1
34	496	0.022974463482	2
34	602	0.026430404426	3
34	618	0.026803737759	4
34	667	0.028123737759	5
34	767	0.030154876634	6
34	835	0.032178825672	5
34	1150	0.042446125083	6
34	1251	0.045018825672	5
34	1295	0.048258825672	4
34	1352	0.049578825672	3
34	1396	0.050898825672	2
34	1419	0.052218825672	1
34	1439	0.054498825672	0
34	1921	0.075645492338	1
34	1953	0.076587796814	0
34	2517	0.102222960784	1
34	2540	0.103542960784	0
34	4573	0.339432556857	1
34	4575	0.339432556857	0
34	9084	1.041639999999	1
34	9101	1.041946666665	0
34	10291	1.102222960784	1
34	10292	1.102506666665	0
34	18956	3.030479999998	1
34	18958	3.030479999998	0
36	310	0.018018825672	1
36	325	0.018018825672	0
36	343	0.018083692642	1
36	348	0.018232205224	2
36	432	0.021258825672	1
36	483	0.022726125083	2
36	497	0.022974463482	3
36	603	0.026430404426	4
36	619	0.026803737759	5
36	668	0.028123737759	6
36	765	0.030154876634	7
36	837	0.032178825672	6
36	844	0.032552159005	5
36	889	0.034832159005	4
36	954	0.038072159005	3
36	993	0.038418451012	4
36	1019	0.039392159005	3
36	1056	0.040712159005	2
36	1094	0.042032159005	1
36	1151	0.042446125083	2
36	1544	0.059672159005	1
36	1578	0.060992159005	0
36	1922	0.075645492338	1
36	1955	0.076587796814	0
36	4574	0.339432556857	1
36	4577	0.339432556857	0
36	18957	3.030479999998	1
36	18960	3.030479999998	0
36	18973	3.031199999999	1
36	18976	3.031799999998	0
38	9324	1.051946666665	1
38	9378	1.053266666665	0
40	576	0.026151784345	1
40	628	0.027098451012	0
40	1226	0.044006125083	1
40	1347	0.049166125083	2
40	1383	0.050486125083	3
40	1449	0.055018825672	2
40	1499	0.058030404426	3
40	1508	0.058258825672	2
40	1569	0.060310404426	3
40	1605	0.063418825672	2
40	1630	0.064738825672	1
40	1677	0.067018825672	0
40	2210	0.088004561501	1
40	2211	0.088004561501	0
40	2318	0.092688932581	1
40	2341	0.094008932581	0
40	9360	1.052959999999	1
40	9380	1.053266666665	0
40	9411	1.054279999999	1
40	9414	1.054586666665	0
40	9459	1.055653333332	1
40	9461	1.055906666665	0
40	18879	3.028586666666	1
40	18880	3.028586666666	0
42	376	0.019734463482	1
42	408	0.020154876634	0
42	807	0.031258825672	1
42	809	0.031258825672	0
42	1165	0.042552159005	1
42	1246	0.044832159005	2
42	1284	0.047338825672	1
42	1312	0.048658825672	0
42	1391	0.050712159005	1
42	1398	0.050938825672	0
42	1410	0.052032159005	1
42	1421	0.052258825672	0
42	3207	0.160908155995	1
42	3217	0.162228155995	0
42	19136	3.042239999998	1
42	19144	3.043559999998	0
44	377	0.019734463482	1
44	410	0.020154876634	0
44	1135	0.042178825672	1
44	1136	0.042178825672	2
44	1166	0.042552159005	3
44	1168	0.042552159005	4
44	1183	0.042694463482	3
44	1603	0.062787796815	2
44	1607	0.063574463481	1
44	1635	0.064894463481	0
44	4520	0.338112556857	1
44	4539	0.338112556857	0
44	19097	3.040853333332	1
44	19099	3.040853333332	0
44	19143	3.042552159005	1
44	19146	3.043559999998	0
44	20411	3.242552159005	1
44	20416	3.243853333331	0
44	21269	3.442552159005	1
44	21274	3.443853333331	0
44	22127	3.642552159005	1
44	22132	3.643853333331	0
44	22985	3.842552159005	1
44	22990	3.843853333331	0
44	23843	4.042552159005	1
44	23848	4.043853333331	0
44	24701	4.242552159005	1
44	24706	4.243853333331	0
44	25559	4.442552159005	1
44	25564	4.443853333331	0
44	26417	4.642552159005	1
44	26422	4.643853333331	0
44	27275	4.842552159005	1
44	27280	4.843853333331	0
